
Host: gligar05.gastly.os

Timers On : Tue Oct 22 15:59:29 2019
Timers Off: Tue Oct 22 15:59:42 2019

Wall Time:       12.87 seconds

                                                       Time (seconds)
Module                                       User      System        Wall        Calls

--------------------------------------------------------------------------------------

**************************************************************************************
